108
Lattice="9.03305498432477 0.0 0.0 0.0 9.03305498432477 0.0 0.0 0.0 9.03305498432477" Properties=species:S:1:pos:R:3:momenta:R:3:forces:R:3 energy=-5423.149200086252 pbc="T T T"
Al       0.53150952       1.88880526       7.56741986      -0.54106951       0.16324310      -0.10819036       5.41634673      11.34250322      12.26270100
Al       1.97769236       0.76892499       5.24618170      -0.21985975      -0.80076178       0.54138548       1.29887195      16.59242232      -9.96193708
Al       2.49648845       0.51241914       3.13476809       1.28917037       1.47363755       1.08867458     -15.47522296      37.19137267      -2.66136474
Al       1.27541645       6.12680687       7.35986537       0.53129219      -0.66396460       1.16196287      -5.26471514      26.21696062      47.56192393
Al       2.85590330       8.33959849       6.35909429      -0.01740855       0.07992248       1.05493743     -25.08900985      -6.79465955      11.68238488
Al       0.87556821       6.93840441       0.84483145       0.47188064      -1.09698593      -0.51346646     -21.49638780      24.29312475     -53.93995162
Al       7.85141278       0.29167563       4.88419425       0.17423889      -0.02503303      -1.20723249      20.22480463      17.96840215      17.09714206
Al       3.58125782       8.71709074       4.26894349      -1.21125952       0.76543786      -0.09530458      -2.20880411       7.15086564      13.91790031
Al       8.02822938       8.85269088       0.65500847      -0.53156573       0.22111965       0.69731515      15.29613320       2.16598158     -26.98786949
Al       7.22308453       7.41287248       3.50644439      -0.51147150      -0.29537984       1.05362376     -23.64056072       3.62314194     -16.71351930
Al       0.06602340       7.64653021       5.67514226       0.96087594       1.38038110       0.70532909      -4.17520849       0.44876576      -7.08896750
Al       8.53046314       6.82304930       8.31768338       1.74804029       0.28117965      -0.37336667      14.55839774     -19.24509952      25.44218520
Al       3.49601997       5.56084487       0.37978944       0.49800158       0.73573806      -0.22675062     -12.11742637      -9.50515946       5.02999270
Al       3.29706591       7.05714493       0.07714504       1.70227726       0.73493269       1.85394596     -26.36800271      18.33226630       3.88533974
Al       7.97819102       5.44700993       7.67289192      -0.92797370       0.79303654      -0.56408791      -5.61154199     -16.93004696      -8.99362111
Al       5.54612359       4.13578403       7.68123239      -1.46888608       0.25250414       0.67344714     -13.93817932       4.74067171      -6.83565458
Al       0.41804870       4.54401286       3.52486187       0.79933953      -1.16175030      -0.03743463      -3.06050256       0.63585410     -10.54077689
Al       6.34364865       0.25101745       4.33515793      -2.71432741      -1.47294729       0.13587340     -15.60957141      14.52044892     -15.54968751
Al       6.55108299       4.38647793       5.99658434      -0.95062341      -0.30486172       0.91427893     -26.50789095     -25.17732771      33.55171152
Al       3.90496793       4.90823126       1.80554703       1.11952115       0.33499835      -2.34116892      10.02219208     -13.07829239      20.32375158
Al       8.45372433       2.51448799       4.91574875       0.10958269      -0.30970121       1.28947625      -5.20566617     -11.12297577      28.39937171
Al       1.48429759       3.98060084       4.95487416      -0.87095619      -0.63637889       0.60691727     -25.30043129       1.23926820      -6.54639973
Al       7.61525918       4.67568448       5.24488948       0.24972079      -0.61706148       0.86343046      24.12469062      -7.80348135     -23.62109668
Al       9.03154707       3.08454534       0.36832688      -0.79451815       0.50167238       1.63185277     -13.79622581       8.74745562     -18.25863227
Al       3.87144062       5.27983282       7.86161036       1.54392664       1.03832742       0.78377330      12.55743091      -4.73394899     -14.88524762
Al       0.36530081       3.91334878       7.31989354       0.78434260      -1.44823988      -1.31596973     -22.99117648      -2.79420804       1.29264650
Al       1.16431601       5.81623543       4.20614588      -1.82887880      -0.48341447      -1.01959488       7.71579487      22.93321138      -8.50766480
Al       1.74317060       4.76201001       7.66753843      -0.39238340      -0.89957509      -1.40787456       8.59876433      -9.54817020      15.01473571
Al       5.19047926       5.98640571       6.86534912       0.99972219       1.59339499      -1.50837966     -21.85753056      -4.49951249      -4.26082443
Al       0.27683587       8.74952121       3.34022315       0.59833185      -0.33887011      -0.76521814      13.92622315      47.13953668     -15.84066293
Al       0.69981461       0.68852985       6.42336415       0.91675791      -0.88809285      -0.18067213     -11.37566349     -12.86404288      -9.04440506
Al       1.80083686       8.12903507       4.93935126      -1.15933355      -1.38824447       0.81586067     -10.02386241     -16.05647509     -11.04584011
Al       4.90216321       8.32839380       3.43091283       0.21274645      -0.63972856       0.03038240      16.77056428     -14.00190282      -8.45305856
Al       2.81220497       4.70617917       4.05195458      -0.05144520      -0.32039143      -0.69801634      -4.01249175     -17.44163711     -30.41779202
Al       6.35754511       6.24511739       6.05669962      -0.14972872      -0.21945532      -0.10741493      26.20197311      11.35781145     -16.25726926
Al       2.51527036       0.49554329       7.15884394       0.03014242      -0.26453162      -0.02322516      -3.15800000      28.39097071       9.07440174
Al       4.13027022       8.79173369       7.57643066       0.49057916       0.54078904      -1.61659312      11.22971518       7.03006003      19.37070113
Al       5.85806120       2.11029673       0.85112284       0.42508628      -0.73030406       1.42038823     -15.96513866     -30.90880864      13.15824677
Al       8.19136734       1.99665903       6.37915005       0.45415455       0.65648138      -0.88328447     -13.55740715      -2.17175631      10.73264338
Al       1.95471698       0.25459914       0.72037954      -0.44096609      -0.58669088      -0.25720963     -23.36654039       1.40185494       8.85416561
Al       3.18580750       3.29692375       0.86266137       0.83322574      -0.40063793      -0.32417209     -16.27321326       5.81656469       8.60711947
Al       5.57712639       3.38396094       2.85439063       1.75163983      -0.18899220       0.01289928      -3.77400086       2.95016631      -3.76559508
Al       3.51257556       1.76360055       3.98708708      -0.57261530       1.34286975       1.23810401      26.39367376      -7.43328785      -3.03888815
Al       3.77152700       7.66076815       5.65344952      -1.10484798      -0.42526308       1.15725687      29.36390882     -14.88659958      -8.91295961
Al       1.55004032       2.88647892       6.39327551       0.46647828       0.41719478      -0.42828239      -2.74435858     -26.40006190       2.32173838
Al       6.51753192       2.05394344       7.52700035       1.79160984       0.69500197      -1.04072128     -28.38904450     -17.06278189     -31.40214568
Al       3.16902376       1.67317490       0.93707761      -1.35465470       1.58837005      -1.52074066      10.79583757     -12.32009605      24.61140452
Al       3.28729629       6.23953770       3.82196810      -0.02369472      -0.16499311      -1.41309750      -5.38156126      19.21624984     -11.59103114
Al       6.47769717       3.40904287       0.53974924       0.70664923       2.01579489      -0.23157227       6.69768891      32.22817152      15.13532232
Al       3.24981798       3.96442985       8.15603507       0.31618079      -0.86921282       0.04194725     -12.24513297     -25.31714114       1.65600850
Al       4.62947833       3.73043459       0.40924748      -0.86548611       1.93476613       0.43842810      19.16598397      11.59898926       6.84589285
Al       6.02594539       4.78817145       4.40147551      -0.17972459       0.31299459      -0.78842448     -11.67070114      -0.94490989     -20.79709777
Al       8.57112813       5.19167277       0.75457215       0.28439422      -1.02486601       1.16887128     -10.41526748      17.25646481     -22.17717206
Al       4.73550103       3.28406714       5.00183995       0.64959440      -0.47534370      -0.21051930       4.09450015       5.59703966     -15.07672188
Al       1.45544112       4.93137797       1.42353438       0.67297246      -1.21413081      -0.59140637       4.09430115      34.11387978      56.93847537
Al       3.83091221       3.26200346       2.74262175       1.71767010       0.76011733      -0.75349326      -1.54325944      -4.36299246       3.96859811
Al       3.73129762       1.81368060       6.03368106       0.27838484       0.34650318      -0.41457062      -5.71220031     -22.02937643      -2.84408214
Al       2.21914427       2.54966507       4.32429922      -0.06211304       1.59884209      -0.30656734     -14.42588381      -0.63512215       6.81616752
Al       4.59791092       2.36992525       8.32676009      -2.25113550      -1.03469680      -1.93398710       6.25977595     -16.37599266     -10.40401963
Al       3.82845807       3.22732629       6.53746210      -0.15385426      -0.59612211      -0.60326868      14.58171464       7.01413624      18.59251582
Al       2.81932755       1.83141856       8.39753349       1.20722905       0.70168042      -0.31679532     -12.94584122       3.50333025     -16.95104165
Al       1.51312008       8.24030189       2.88960296      -1.26256769       1.97036475       0.25640086       7.76438645     -22.89554467     -12.02779388
Al       0.69435715       6.36466402       2.14500165       1.80254777      -0.32523540      -0.48796576     -45.61452016     -11.30983941      47.75124716
Al       6.99444906       3.57800151       8.10499033      -0.66624566      -0.11999931      -1.64273514      27.76302318      25.04277894     -16.71645377
Al       4.78610936       0.23982822       1.16196868       0.39115935      -0.36061771      -0.29733176      26.17942905      18.71547676       2.24385474
Al       7.53004220       5.47175511       2.68339442      -0.64426364      -1.33068544      -0.32348076      -8.18647130      19.10325516      -2.16869681
Al       3.48522584       6.43732843       2.22385347      -0.52606250      -0.75848143      -0.13229321       9.82466646      -0.04181686       6.89266621
Al       3.67624267       4.74412639       5.36266047       1.32695744      -1.22501871      -1.04224213      32.07029126      -4.23536156       7.04686539
Al       2.60703029       6.09519108       5.54266505      -0.75256067      -0.60520473       1.58217140       8.77794601       9.13563017       5.23493159
Al       8.99669992       5.30129025       5.63735326       0.85992071      -1.03197739      -1.01726771       0.95825856      -5.94160621      12.06144951
Al       1.25122972       6.19682207       6.07737210      -0.33839609       1.25879688       1.01034264     -11.67339318      13.99857536     -24.90695261
Al       1.41923824       8.63818324       8.13727127      -0.59890424       1.92686263       1.01296375      -0.48507570     -13.41297474       5.45135091
Al       3.40321307       8.74703156       0.88708763       0.15869459      -0.31959508       0.87989465     -10.81714286      -0.46797729     -21.30213247
Al       1.98381093       3.08440930       2.59982642       0.56554941       0.81297928      -1.30077350      -3.86525636       6.63385853       0.40673293
Al       7.70605663       2.25323534       1.65896545      -0.75985822      -0.75930585      -0.70016173       4.10278418      -8.06526190      -0.13608812
Al       0.37936236       1.80486991       2.82366438      -0.28777460       1.40840811       0.51660831       6.48376567     -18.49359837      -3.87135225
Al       3.23679485       8.36741605       2.52029796       0.02990960       0.78300167       1.38059217       9.31442229     -15.19127713      -3.53416162
Al       8.53592091       8.04198163       3.93140918      -1.13607847      -0.30144395       1.61638806     -10.61901369     -26.78244699      22.81516852
Al       5.33609943       1.00660868       2.91869147       0.15463720       0.23574309      -0.43033594      -3.36217861      14.21719330      -6.11297233
Al       7.94060290       9.00461614       1.93805528       0.20259614       0.45148894       0.05416602      17.88666335     -30.92017631       4.18932318
Al       4.80049413       0.22180425       6.01872018      -0.52787127      -0.07927567      -1.70812775      12.18731203       4.11891794      -4.40817154
Al       7.49658768       2.05898895       8.62538657      -1.18770993       1.69733305      -0.65690782      24.81278643     -16.45106841      20.69991123
Al       6.64983913       7.27559660       1.54187387       1.16199425       0.82631444      -0.55222612      -2.49201567      -2.79976028       5.68267823
Al       6.22958098       0.10957144       8.86112578      -0.40745396      -0.62438997       0.19267598     -13.65071968       9.43334934      -4.14381743
Al       4.94486365       7.37261750       8.47427280      -0.34758594      -0.59036732       0.95068845      12.18849996      16.56468472       3.76925385
Al       3.56686980       6.73496114       7.55004438       0.81456857       0.16729346      -0.78948035     -18.82117269      16.21504540     -26.50943905
Al       6.13401795       6.23566601       8.21432378       0.93360806       1.12157135       0.52868915      23.57842185      -8.14970892       1.59170909
Al       1.16470318       2.36022697       1.16280045      -0.79872173       0.63328613       0.84900342      12.69496773     -13.61015810       1.94117812
Al       7.47600171       0.72370529       2.76661124       0.37260596      -0.25340644       1.13613234     -23.43039084      32.27782615      37.51064934
Al       1.99263232       6.75212809       1.72523611      -1.13238409      -0.13270609       2.51568538      41.20554100      10.34065461       3.27767005
Al       8.81836105       2.98822728       3.78210401       0.26430586      -0.66193588       0.78534402       4.19568257      17.63461097     -29.95753562
Al       6.81118552       2.44024066       3.80444452      -1.77726744      -0.05244794      -0.99734976       2.29936184      -2.06593488       2.58356416
Al       5.73831679       1.91727739       5.33241579      -0.32178533       0.32844219       0.60607644       9.29290534      -6.42754925       9.10305804
Al       8.62079649       4.14805199       1.89538249      -0.40050482       0.20323673      -0.28829813      23.86095100     -14.36822628       5.93308628
Al       4.34557047       6.23533975       5.04142257       1.31528524       0.38902551       0.32564256      22.42224339      -1.88238709       6.16417193
Al       1.54926062       4.24681303       0.57762587       0.26519115      -0.46489481       0.40177791       6.07907257     -40.33256223     -60.94160496
Al       8.99993362       7.86055087       7.39409135      -0.27833147      -0.60382279      -1.15413718      24.84393040      16.33792660      -6.61715945
Al       7.30146641       7.70484323       8.84401357       0.33419301      -2.24571585      -1.14758845     -17.21649704     -12.38945240       3.58772881
Al       6.43429254       8.22162839       5.42621170      -0.64591278      -1.08340039      -0.42964671      -4.91350467     -18.35189514      19.76107099
Al       5.46600964       5.75046644       0.68411277       1.26920997      -0.94802174       1.00697059       5.94435881      -9.08053316      15.90265461
Al       7.19254421       3.91548072       2.33002471      -0.30666474      -1.16765593       0.98610310     -21.82197099      -6.73576370       6.09578953
Al       8.22698396       6.22090280       4.18866109      -0.83310245      -0.18484740       1.03763354       3.50952733      -5.12568420       6.79091861
Al       7.91623778       0.28326270       7.85408221       0.58981139      -0.59009901      -0.47397316      -1.91177343      10.28549825     -14.70264977
Al       4.47305105       7.52130799       1.40621017      -0.00642117       1.25094783      -0.31186706      28.76685404     -11.24393260       5.11813149
Al       0.28698647       1.03875358       0.01702966      -1.41132675       0.99565271       0.84662311       0.61356055      -3.86463978      10.80036875
Al       2.51175044       4.13577168       6.14301646      -0.30230168       0.20423714       0.97243260      -3.56097882      11.01694625      15.60834217
Al       5.73401000       6.65181633       4.15887343      -1.15294015      -0.55947330      -0.61003587       1.70465082       0.72603218     -11.98901057
Al       7.43720711       7.64460657       6.97634740       0.56327315      -0.55926857      -0.20906831     -21.57985277      -1.47319848     -14.74172345
